                               Psi4 1.1a2.dev146

  ==> Input File <==

--------------------------------------------------------------------------
molecule {
0 1
    O         0.000000000000     0.000000000000    -0.116529192243
    H        -0.000000000000     1.344767972762     0.924701422022
    H        -0.000000000000    -1.344767972762     0.924701422022
no_reorient
no_com
units bohr
}

set {
  basis cc-pVDZ
  freeze_core true
  r_convergence 1e-13
  e_convergence 1e-13
}

#energy('ccsd(t)')
energy('ccsd')

--------------------------------------------------------------------------

    Molecular point group: c2v

    Geometry (in Bohr), charge = 0, multiplicity = 1:

       Center              X                  Y                   Z               Mass
    ------------   -----------------  -----------------  -----------------  -----------------
           O          0.000000000000     0.000000000000    -0.116529192243    15.994914619560
           H         -0.000000000000     1.344767972762     0.924701422022     1.007825032070
           H          0.000000000000    -1.344767972762     0.924701422022     1.007825032070

  Charge       = 0
  Multiplicity = 1
  Basis Set: file /Users/ashutosh/installed/latest_psi4/bin/share/psi4/basis/cc-pvdz.gbs

    Orbital Energies (a.u.)
    -----------------------

    Doubly Occupied:

       1A1   -20.540068     2A1    -1.368146     1B2    -0.731355
       3A1    -0.577301     1B1    -0.497867

  @RHF Final Energy:   -76.02176933401533

   => Energetics <=

    Nuclear Repulsion Energy =              9.7794068912038625
    One-Electron Energy =                -124.1728790325987006
    Two-Electron Energy =                  38.3717028073795063
    DFT Exchange-Correlation Energy =       0.0000000000000000
    Empirical Dispersion Energy =           0.0000000000000000
    PCM Polarization Energy =               0.0000000000000000
    EFP Energy =                            0.0000000000000000
    Total Energy =                        -76.0217693340153318
      * MP2 total energy                      =  -76.219391823288802
      * CCSD total energy                     =  -76.228930817641626
*** Psi4 exiting successfully. Buy a developer a beer!
